/*--------------------------------*- C++ -*----------------------------------*\
| =========                 |                                                 |
| \\      /  F ield         | foam-extend: Open Source CFD                    |
|  \\    /   O peration     | Version:     3.1                                |
|   \\  /    A nd           | Web:         http://www.extend-project.de       |
|    \\/     M anipulation  |                                                 |
\*---------------------------------------------------------------------------*/
FoamFile
{
    version     2.0;
    format      ascii;
    class       volVectorField;
    location    "345600";
    object      DU;
}
// * * * * * * * * * * * * * * * * * * * * * * * * * * * * * * * * * * * * * //

dimensions      [0 1 0 0 0 0 0];

internalField   nonuniform List<vector> 
23248
(
(-3.67899e-08 4.66251e-12 -3.33114e-07)
(-3.67928e-08 8.95343e-12 -3.33113e-07)
(-3.67967e-08 2.88941e-11 -3.33112e-07)
(-3.68101e-08 8.25944e-11 -3.33109e-07)
(-3.6839e-08 2.0313e-10 -3.33113e-07)
(-3.68622e-08 4.94862e-10 -3.33145e-07)
(-3.6939e-08 1.28256e-09 -3.33205e-07)
(-3.72348e-08 3.39637e-09 -3.33224e-07)
(-3.80727e-08 9.98041e-09 -3.33044e-07)
(-3.46114e-08 -1.62733e-11 -3.2883e-07)
(-3.46136e-08 1.56381e-11 -3.28818e-07)
(-3.46226e-08 6.19098e-11 -3.28808e-07)
(-3.46187e-08 1.64184e-10 -3.28767e-07)
(-3.46758e-08 4.19064e-10 -3.28759e-07)
(-3.47272e-08 1.0281e-09 -3.28731e-07)
(-3.48063e-08 2.68046e-09 -3.28597e-07)
(-3.51375e-08 7.12991e-09 -3.28124e-07)
(-3.67782e-08 1.94947e-08 -3.26981e-07)
(-2.00729e-08 -1.23708e-11 -3.50717e-07)
(-2.00728e-08 4.67194e-12 -3.50717e-07)
(-2.00747e-08 2.54762e-11 -3.50718e-07)
(-2.00784e-08 7.20607e-11 -3.50721e-07)
(-2.00821e-08 1.88964e-10 -3.5073e-07)
(-2.01065e-08 4.90123e-10 -3.50756e-07)
(-2.01768e-08 1.28388e-09 -3.50814e-07)
(-2.04221e-08 3.50555e-09 -3.50831e-07)
(-2.14896e-08 1.08138e-08 -3.49242e-07)
(-1.71457e-08 -3.21328e-11 -3.44986e-07)
(-1.71462e-08 7.73998e-12 -3.4498e-07)
(-1.71485e-08 5.15899e-11 -3.44976e-07)
(-1.71528e-08 1.4564e-10 -3.4497e-07)
(-1.71659e-08 3.83598e-10 -3.44958e-07)
(-1.71949e-08 1.00526e-09 -3.44927e-07)
(-1.72903e-08 2.68624e-09 -3.44817e-07)
(-1.77321e-08 7.3173e-09 -3.44279e-07)
(-1.95813e-08 2.00967e-08 -3.41846e-07)
(-1.23609e-10 3.0669e-12 -3.58426e-07)
(-1.22846e-10 5.96408e-12 -3.58424e-07)
(-1.23303e-10 2.35682e-11 -3.58425e-07)
(-1.24242e-10 6.6162e-11 -3.58428e-07)
(-1.29763e-10 1.75635e-10 -3.58437e-07)
(-1.41991e-10 4.61203e-10 -3.58463e-07)
(-1.85069e-10 1.2046e-09 -3.58525e-07)
(-3.65707e-10 3.24593e-09 -3.58533e-07)
(-1.70714e-09 9.93665e-09 -3.56932e-07)
(4.84833e-10 -1.55716e-11 -3.52524e-07)
(4.85398e-10 9.08467e-12 -3.52515e-07)
(4.84849e-10 4.75665e-11 -3.52512e-07)
(4.83707e-10 1.3381e-10 -3.52506e-07)
(4.75014e-10 3.55512e-10 -3.52496e-07)
(4.48006e-10 9.43335e-10 -3.52469e-07)
(3.50122e-10 2.52825e-09 -3.52377e-07)
(-5.35138e-11 6.82857e-09 -3.51818e-07)
(-1.57471e-09 1.82567e-08 -3.4872e-07)
(1.30886e-08 2.72598e-12 -3.59434e-07)
(1.30876e-08 4.68205e-12 -3.5943e-07)
(1.30867e-08 2.15098e-11 -3.5943e-07)
(1.30845e-08 6.04478e-11 -3.59433e-07)
(1.30849e-08 1.59053e-10 -3.5944e-07)
(1.30652e-08 4.13468e-10 -3.59466e-07)
(1.30071e-08 1.07485e-09 -3.59525e-07)
(1.28916e-08 2.92712e-09 -3.59533e-07)
(1.30779e-08 9.40596e-09 -3.57989e-07)
(1.88965e-08 -2.88053e-11 -3.51521e-07)
(1.88961e-08 6.45657e-12 -3.51519e-07)
(1.88931e-08 4.33036e-11 -3.51517e-07)
(1.88849e-08 1.22058e-10 -3.51513e-07)
(1.88675e-08 3.20845e-10 -3.51505e-07)
(1.88158e-08 8.41983e-10 -3.51487e-07)
(1.86684e-08 2.24442e-09 -3.51424e-07)
(1.83091e-08 6.10101e-09 -3.50967e-07)
(1.76415e-08 1.66776e-08 -3.48145e-07)
(5.14022e-08 6.29903e-13 -3.54672e-07)
(5.14012e-08 3.18684e-12 -3.54669e-07)
(5.14011e-08 1.9469e-11 -3.54669e-07)
(5.14056e-08 5.52186e-11 -3.54672e-07)
(5.14465e-08 1.43525e-10 -3.54665e-07)
(5.14627e-08 3.58229e-10 -3.54685e-07)
(5.14599e-08 8.95576e-10 -3.54739e-07)
(5.11649e-08 2.26413e-09 -3.54842e-07)
(4.68693e-08 6.62279e-09 -3.55055e-07)
(5.00088e-08 -3.36494e-11 -3.48056e-07)
(5.00062e-08 3.23523e-12 -3.48056e-07)
(5.00071e-08 4.16138e-11 -3.48054e-07)
(5.00134e-08 1.18908e-10 -3.48051e-07)
(5.00309e-08 3.08211e-10 -3.48038e-07)
(5.00586e-08 7.90928e-10 -3.48015e-07)
(5.0066e-08 2.04808e-09 -3.4795e-07)
(4.97664e-08 5.36996e-09 -3.4762e-07)
(4.81367e-08 1.43412e-08 -3.4564e-07)
(6.63139e-08 -2.23009e-11 -3.58335e-07)
(6.63111e-08 -1.28348e-12 -3.58334e-07)
(6.631e-08 2.00692e-11 -3.58334e-07)
(6.63118e-08 6.0688e-11 -3.58335e-07)
(6.6324e-08 1.6091e-10 -3.58336e-07)
(6.63224e-08 4.2106e-10 -3.58356e-07)
(6.63127e-08 1.09818e-09 -3.58393e-07)
(6.64177e-08 2.97569e-09 -3.58268e-07)
(7.08518e-08 8.76366e-09 -3.54781e-07)
(6.60762e-08 -4.37051e-11 -3.48608e-07)
(6.60785e-08 -2.19064e-12 -3.48611e-07)
(6.60792e-08 4.05804e-11 -3.48611e-07)
(6.60815e-08 1.22629e-10 -3.48607e-07)
(6.60862e-08 3.25484e-10 -3.48597e-07)
(6.6087e-08 8.58162e-10 -3.48578e-07)
(6.60775e-08 2.27572e-09 -3.48494e-07)
(6.59528e-08 6.0358e-09 -3.47946e-07)
(6.47014e-08 1.56121e-08 -3.44974e-07)
(7.26205e-08 -3.56337e-11 -3.4958e-07)
(7.26216e-08 -1.85729e-12 -3.49581e-07)
(7.26223e-08 2.24011e-11 -3.49582e-07)
(7.26239e-08 6.69044e-11 -3.49584e-07)
(7.26208e-08 1.72504e-10 -3.49594e-07)
(7.25957e-08 4.41219e-10 -3.49619e-07)
(7.26155e-08 1.14959e-09 -3.49655e-07)
(7.27857e-08 3.01903e-09 -3.49586e-07)
(7.3545e-08 9.26993e-09 -3.47817e-07)
(7.7377e-08 -4.46162e-11 -3.37043e-07)
(7.7378e-08 -4.33714e-13 -3.37049e-07)
(7.73772e-08 4.37251e-11 -3.37051e-07)
(7.73731e-08 1.29577e-10 -3.37048e-07)
(7.73582e-08 3.37815e-10 -3.37043e-07)
(7.73187e-08 8.71428e-10 -3.37028e-07)
(7.72686e-08 2.27585e-09 -3.36958e-07)
(7.72398e-08 6.01728e-09 -3.36504e-07)
(7.73011e-08 1.59745e-08 -3.34136e-07)
(9.0973e-08 -3.07345e-11 -3.36901e-07)
(9.09729e-08 -3.45191e-14 -3.36904e-07)
(9.09747e-08 2.09039e-11 -3.36906e-07)
(9.09787e-08 6.11521e-11 -3.36909e-07)
(9.10466e-08 1.52414e-10 -3.36904e-07)
(9.13562e-08 4.00344e-10 -3.36883e-07)
(9.14462e-08 9.8118e-10 -3.36886e-07)
(9.22273e-08 2.57853e-09 -3.36765e-07)
(9.36105e-08 7.92953e-09 -3.35563e-07)
(9.85108e-08 -8.42045e-12 -3.21851e-07)
(9.85147e-08 6.92958e-12 -3.21856e-07)
(9.85172e-08 4.6001e-11 -3.21858e-07)
(9.85215e-08 1.29425e-10 -3.21856e-07)
(9.85371e-08 3.33264e-10 -3.2185e-07)
(9.85556e-08 8.57232e-10 -3.21833e-07)
(9.85613e-08 2.18966e-09 -3.21786e-07)
(9.84048e-08 5.69805e-09 -3.2157e-07)
(9.68244e-08 1.51028e-08 -3.2062e-07)
(1.08682e-07 -2.44923e-11 -3.22862e-07)
(1.08684e-07 3.69176e-12 -3.22864e-07)
(1.08698e-07 2.73013e-11 -3.22851e-07)
(1.08706e-07 6.77242e-11 -3.22831e-07)
(1.08705e-07 1.70712e-10 -3.22844e-07)
(1.08695e-07 4.51154e-10 -3.22897e-07)
(1.08758e-07 1.18074e-09 -3.22909e-07)
(1.08927e-07 2.9343e-09 -3.22909e-07)
(1.08592e-07 8.61062e-09 -3.2252e-07)
(1.10961e-07 -1.41665e-12 -3.07407e-07)
(1.10966e-07 1.45518e-11 -3.07416e-07)
(1.10971e-07 5.179e-11 -3.07414e-07)
(1.10969e-07 1.33569e-10 -3.07411e-07)
(1.10956e-07 3.4226e-10 -3.07417e-07)
(1.10924e-07 9.06025e-10 -3.07435e-07)
(1.10894e-07 2.41231e-09 -3.07412e-07)
(1.10775e-07 6.31343e-09 -3.0723e-07)
(1.10196e-07 1.68729e-08 -3.06428e-07)
(1.34913e-07 -3.30688e-11 -3.05386e-07)
(1.34916e-07 6.49234e-12 -3.05391e-07)
(1.34933e-07 2.78221e-11 -3.05385e-07)
(1.34938e-07 6.69985e-11 -3.05385e-07)
(1.34922e-07 1.57122e-10 -3.05401e-07)
(1.34733e-07 3.33814e-10 -3.05554e-07)
(1.3409e-07 1.06315e-09 -3.06147e-07)
(1.35747e-07 3.09025e-09 -3.04953e-07)
(1.3148e-07 8.70316e-09 -3.06603e-07)
(1.30901e-07 1.2311e-11 -2.92874e-07)
(1.30906e-07 1.85098e-11 -2.92874e-07)
(1.30917e-07 5.54155e-11 -2.92873e-07)
(1.30922e-07 1.41683e-10 -2.92871e-07)
(1.30892e-07 3.42696e-10 -2.92887e-07)
(1.30729e-07 8.63939e-10 -2.93017e-07)
(1.30461e-07 2.41307e-09 -2.9326e-07)
(1.30319e-07 6.4717e-09 -2.92983e-07)
(1.30038e-07 1.69398e-08 -2.91757e-07)
(1.57326e-07 -8.55888e-12 -2.95284e-07)
(1.57326e-07 9.08249e-12 -2.95287e-07)
(1.573e-07 2.84318e-11 -2.95349e-07)
(1.57296e-07 9.32395e-11 -2.95365e-07)
(1.57284e-07 2.44031e-10 -2.95375e-07)
(1.57045e-07 6.504e-10 -2.95505e-07)
(1.63112e-07 2.96305e-09 -2.91079e-07)
(1.56009e-07 2.98263e-09 -2.96286e-07)
(1.55487e-07 9.05626e-09 -2.96175e-07)
(1.56608e-07 2.73181e-11 -2.82983e-07)
(1.56612e-07 2.79371e-11 -2.82982e-07)
(1.56624e-07 7.32743e-11 -2.82986e-07)
(1.56629e-07 1.98432e-10 -2.82984e-07)
(1.56602e-07 4.95817e-10 -2.82973e-07)
(1.5638e-07 1.14701e-09 -2.82993e-07)
(1.55491e-07 2.5731e-09 -2.83319e-07)
(1.55857e-07 6.79488e-09 -2.82803e-07)
(1.55815e-07 1.78108e-08 -2.81802e-07)
(1.85272e-07 -4.60259e-12 -2.92129e-07)
(1.85274e-07 1.60857e-11 -2.92133e-07)
(1.85272e-07 4.08971e-11 -2.92137e-07)
(1.85271e-07 1.0084e-10 -2.92144e-07)
(1.85276e-07 2.53751e-10 -2.92153e-07)
(1.85657e-07 6.84421e-10 -2.91846e-07)
(1.87676e-07 1.45764e-09 -2.90345e-07)
(1.87158e-07 2.99601e-09 -2.90884e-07)
(1.86265e-07 8.96857e-09 -2.91772e-07)
(1.94757e-07 3.25659e-11 -2.76979e-07)
(1.94753e-07 3.74979e-11 -2.76975e-07)
(1.9475e-07 8.81548e-11 -2.76976e-07)
(1.94746e-07 2.1704e-10 -2.76978e-07)
(1.94749e-07 5.32479e-10 -2.76961e-07)
(1.94774e-07 1.26696e-09 -2.76857e-07)
(1.94718e-07 2.90839e-09 -2.76697e-07)
(1.94581e-07 7.21858e-09 -2.76761e-07)
(1.94945e-07 1.88802e-08 -2.76583e-07)
(2.74173e-07 1.58774e-11 -2.87515e-07)
(2.74173e-07 1.6712e-11 -2.87514e-07)
(2.74173e-07 3.94544e-11 -2.87516e-07)
(2.74176e-07 9.43284e-11 -2.87522e-07)
(2.74184e-07 2.22598e-10 -2.87533e-07)
(2.74261e-07 5.31078e-10 -2.87543e-07)
(2.74392e-07 1.31929e-09 -2.87528e-07)
(2.74529e-07 3.38003e-09 -2.87587e-07)
(2.73032e-07 9.64923e-09 -2.88415e-07)
(2.73349e-07 2.99038e-12 -2.86257e-07)
(2.73346e-07 3.48334e-11 -2.86239e-07)
(2.7335e-07 9.36513e-11 -2.86234e-07)
(2.73365e-07 2.2634e-10 -2.86229e-07)
(2.73401e-07 5.45197e-10 -2.86216e-07)
(2.73472e-07 1.32993e-09 -2.86184e-07)
(2.73511e-07 3.30544e-09 -2.86116e-07)
(2.73106e-07 8.39055e-09 -2.8594e-07)
(2.70748e-07 2.18815e-08 -2.85615e-07)
(3.62999e-07 2.6576e-11 -3.20844e-07)
(3.63018e-07 2.18702e-11 -3.20826e-07)
(3.63018e-07 4.77796e-11 -3.20826e-07)
(3.63019e-07 1.16401e-10 -3.20834e-07)
(3.63018e-07 2.80661e-10 -3.20854e-07)
(3.63009e-07 6.79224e-10 -3.20903e-07)
(3.6295e-07 1.67197e-09 -3.21026e-07)
(3.62692e-07 4.43057e-09 -3.21072e-07)
(3.59824e-07 1.22114e-08 -3.15613e-07)
(3.76008e-07 -2.2391e-11 -3.14757e-07)
(3.76012e-07 3.9424e-11 -3.14739e-07)
(3.76014e-07 1.1818e-10 -3.14733e-07)
(3.76014e-07 2.90622e-10 -3.14736e-07)
(3.76003e-07 7.03703e-10 -3.14741e-07)
(3.7594e-07 1.71358e-09 -3.14753e-07)
(3.75618e-07 4.22166e-09 -3.14739e-07)
(3.74311e-07 1.05359e-08 -3.14383e-07)
(3.6953e-07 2.5411e-08 -3.13168e-07)
(5.06568e-07 -2.74863e-11 -3.44503e-07)
(5.06592e-07 1.45946e-11 -3.44498e-07)
(5.06596e-07 5.81297e-11 -3.44498e-07)
(5.06601e-07 1.46565e-10 -3.44507e-07)
(5.06607e-07 3.5315e-10 -3.4453e-07)
(5.06609e-07 8.47647e-10 -3.44588e-07)
(5.06546e-07 2.07716e-09 -3.44708e-07)
(5.06001e-07 5.57476e-09 -3.4476e-07)
(4.99228e-07 1.79527e-08 -3.43632e-07)
(5.16348e-07 -2.10131e-11 -3.4753e-07)
(5.16364e-07 4.38086e-11 -3.4753e-07)
(5.16376e-07 1.40779e-10 -3.47524e-07)
(5.16384e-07 3.508e-10 -3.47515e-07)
(5.16384e-07 8.5139e-10 -3.47496e-07)
(5.16328e-07 2.07847e-09 -3.47445e-07)
(5.15913e-07 5.12746e-09 -3.47195e-07)
(5.13645e-07 1.27329e-08 -3.45748e-07)
(5.03761e-07 3.19218e-08 -3.39212e-07)
(6.39755e-07 -8.34191e-12 -3.50067e-07)
(6.40158e-07 2.87296e-11 -3.4973e-07)
(6.40177e-07 7.35995e-11 -3.49716e-07)
(6.40187e-07 1.76075e-10 -3.49723e-07)
(6.40201e-07 4.12272e-10 -3.49744e-07)
(6.40217e-07 9.61224e-10 -3.49792e-07)
(6.40171e-07 2.30628e-09 -3.49851e-07)
(6.39405e-07 6.36748e-09 -3.49575e-07)
(6.29646e-07 2.15114e-08 -3.42689e-07)
(6.56801e-07 1.5154e-11 -3.40495e-07)
(6.56833e-07 6.79549e-11 -3.40477e-07)
(6.56848e-07 1.75945e-10 -3.40457e-07)
(6.56849e-07 4.2143e-10 -3.40441e-07)
(6.56826e-07 1.00208e-09 -3.40417e-07)
(6.5672e-07 2.40575e-09 -3.40334e-07)
(6.56021e-07 5.84386e-09 -3.39897e-07)
(6.52148e-07 1.44331e-08 -3.37469e-07)
(6.35473e-07 3.68013e-08 -3.27038e-07)
(7.77025e-07 -2.99376e-11 -2.46519e-07)
(7.77036e-07 3.27647e-11 -2.46519e-07)
(7.77039e-07 9.59101e-11 -2.46526e-07)
(7.77042e-07 2.25351e-10 -2.46544e-07)
(7.77043e-07 5.1093e-10 -2.46591e-07)
(7.77015e-07 1.14746e-09 -2.46698e-07)
(7.76784e-07 2.66019e-09 -2.46904e-07)
(7.75085e-07 7.08448e-09 -2.47396e-07)
(7.58441e-07 2.28942e-08 -2.50608e-07)
(7.68198e-07 1.03027e-12 -2.6113e-07)
(7.68197e-07 7.90904e-11 -2.61122e-07)
(7.68199e-07 2.1533e-10 -2.61106e-07)
(7.68192e-07 5.11719e-10 -2.61085e-07)
(7.68148e-07 1.19292e-09 -2.61068e-07)
(7.67898e-07 2.78178e-09 -2.61113e-07)
(7.66811e-07 6.51963e-09 -2.60874e-07)
(7.61629e-07 1.54632e-08 -2.59263e-07)
(7.415e-07 3.83462e-08 -2.5164e-07)
(8.11787e-07 -2.88486e-11 -1.79597e-07)
(8.11795e-07 4.39492e-11 -1.79603e-07)
(8.11801e-07 1.28609e-10 -1.79612e-07)
(8.11813e-07 3.03986e-10 -1.79636e-07)
(8.11836e-07 6.98604e-10 -1.79681e-07)
(8.11862e-07 1.60791e-09 -1.79751e-07)
(8.11744e-07 3.84845e-09 -1.79766e-07)
(8.10362e-07 1.02736e-08 -1.79153e-07)
(7.98336e-07 3.09672e-08 -1.729e-07)
(8.03047e-07 2.73644e-11 -1.82797e-07)
(8.03048e-07 9.5883e-11 -1.82797e-07)
(8.03043e-07 2.50147e-10 -1.82798e-07)
(8.03027e-07 5.96468e-10 -1.82806e-07)
(8.02974e-07 1.40261e-09 -1.82813e-07)
(8.02748e-07 3.3145e-09 -1.82767e-07)
(8.01665e-07 7.90749e-09 -1.82265e-07)
(7.96996e-07 1.90351e-08 -1.79282e-07)
(7.81025e-07 4.68393e-08 -1.65967e-07)
(7.77321e-07 -3.65241e-11 -3.51386e-08)
(7.77327e-07 2.94337e-11 -3.51421e-08)
(7.77335e-07 9.87479e-11 -3.51473e-08)
(7.77352e-07 2.34681e-10 -3.51604e-08)
(7.77386e-07 5.34259e-10 -3.51856e-08)
(7.77438e-07 1.21136e-09 -3.52404e-08)
(7.77422e-07 2.8304e-09 -3.53729e-08)
(7.76693e-07 7.32137e-09 -3.58528e-08)
(7.70109e-07 2.32322e-08 -3.97053e-08)
(7.74441e-07 2.41179e-11 -4.53437e-08)
(7.74442e-07 8.28495e-11 -4.5342e-08)
(7.7444e-07 2.27556e-10 -4.53375e-08)
(7.74427e-07 5.43261e-10 -4.5325e-08)
(7.74387e-07 1.26512e-09 -4.52961e-08)
(7.74219e-07 2.95271e-09 -4.52316e-08)
(7.734e-07 6.96987e-09 -4.51154e-08)
(7.69664e-07 1.68343e-08 -4.51106e-08)
(7.55428e-07 4.34964e-08 -4.53319e-08)
(-4.606e-08 2.30618e-11 -3.24513e-07)
(-4.60601e-08 1.06273e-11 -3.24511e-07)
(-4.60619e-08 2.86833e-11 -3.2451e-07)
(-4.60921e-08 9.53086e-11 -3.24492e-07)
(-4.62199e-08 2.16191e-10 -3.24399e-07)
(-4.61904e-08 4.67663e-10 -3.24469e-07)
(-4.62681e-08 1.27787e-09 -3.24562e-07)
(-4.67629e-08 3.3519e-09 -3.24557e-07)
(-4.90414e-08 9.90002e-09 -3.24624e-07)
(-5.60516e-08 1.64765e-11 -3.11628e-07)
(-5.60231e-08 -1.65442e-12 -3.11652e-07)
(-5.58757e-08 7.3339e-12 -3.11784e-07)
(-5.58618e-08 1.35455e-10 -3.11789e-07)
(-5.75123e-08 7.03989e-10 -3.05724e-07)
(-5.6225e-08 6.14883e-10 -3.115e-07)
(-5.62909e-08 1.96667e-09 -3.11594e-07)
(-5.89522e-08 1.15949e-08 -3.04956e-07)
(-6.28129e-08 2.57603e-08 -3.05684e-07)
(-6.85515e-08 6.34948e-11 -2.9266e-07)
(-6.85679e-08 1.83868e-10 -2.92433e-07)
(-6.16064e-08 1.22671e-10 -2.97354e-07)
(-6.1504e-08 1.25122e-10 -2.97336e-07)
(-6.16948e-08 3.18407e-10 -2.97349e-07)
(-6.87155e-08 1.73453e-09 -2.92402e-07)
(-6.89069e-08 4.43405e-09 -2.92397e-07)
(-6.21531e-08 4.69502e-09 -2.97439e-07)
(-6.43895e-08 1.31265e-08 -2.9798e-07)
(-8.29133e-08 3.12734e-11 -2.88296e-07)
(-8.28705e-08 3.8707e-11 -2.88299e-07)
(-8.30712e-08 8.32388e-11 -2.87817e-07)
(-8.32813e-08 1.1506e-10 -2.87622e-07)
(-8.3262e-08 2.79184e-10 -2.87659e-07)
(-8.29517e-08 7.29395e-10 -2.88218e-07)
(-8.3047e-08 1.93957e-09 -2.88405e-07)
(-8.34917e-08 4.97338e-09 -2.88047e-07)
(-8.42885e-08 1.45558e-08 -2.88278e-07)
(-1.041e-07 7.91727e-12 -2.78675e-07)
(-1.04036e-07 1.3063e-11 -2.78711e-07)
(-1.03828e-07 4.19172e-11 -2.78839e-07)
(-1.0359e-07 1.22823e-10 -2.78993e-07)
(-1.03661e-07 3.18024e-10 -2.78975e-07)
(-1.03848e-07 7.8372e-10 -2.78918e-07)
(-1.03913e-07 1.99435e-09 -2.79007e-07)
(-1.04037e-07 5.2969e-09 -2.79128e-07)
(-1.02986e-07 1.55409e-08 -2.78682e-07)
(-1.07483e-07 8.34355e-12 -2.70267e-07)
(-1.07466e-07 2.03698e-11 -2.70276e-07)
(-1.07424e-07 6.35308e-11 -2.70309e-07)
(-1.07422e-07 1.58066e-10 -2.70316e-07)
(-1.0746e-07 3.69905e-10 -2.70314e-07)
(-1.07505e-07 9.14637e-10 -2.70354e-07)
(-1.07529e-07 2.29301e-09 -2.70467e-07)
(-1.07441e-07 5.82683e-09 -2.70733e-07)
(-1.09216e-07 1.68522e-08 -2.70759e-07)
(-1.21298e-07 -4.37375e-12 -2.63628e-07)
(-1.21287e-07 3.188e-11 -2.63634e-07)
(-1.21268e-07 7.39679e-11 -2.63643e-07)
(-1.21286e-07 1.71068e-10 -2.63647e-07)
(-1.21336e-07 4.2826e-10 -2.63657e-07)
(-1.21399e-07 1.06132e-09 -2.63694e-07)
(-1.2151e-07 2.65092e-09 -2.6378e-07)
(-1.2144e-07 6.90131e-09 -2.63937e-07)
(-1.17053e-07 1.88125e-08 -2.64521e-07)
(-1.44445e-07 7.22948e-13 -2.55254e-07)
(-1.44445e-07 2.35653e-11 -2.55254e-07)
(-1.4444e-07 6.52388e-11 -2.5526e-07)
(-1.44423e-07 1.60317e-10 -2.55273e-07)
(-1.44461e-07 3.95871e-10 -2.55292e-07)
(-1.44495e-07 9.68178e-10 -2.55347e-07)
(-1.44527e-07 2.37553e-09 -2.55467e-07)
(-1.44471e-07 6.11517e-09 -2.55549e-07)
(-1.43223e-07 1.71803e-08 -2.53914e-07)
(-1.51686e-07 -1.20293e-12 -2.66939e-07)
(-1.51686e-07 2.68001e-11 -2.66942e-07)
(-1.51683e-07 7.43023e-11 -2.66949e-07)
(-1.51665e-07 1.82284e-10 -2.66975e-07)
(-1.51641e-07 4.75606e-10 -2.67029e-07)
(-1.51629e-07 1.16602e-09 -2.67103e-07)
(-1.51411e-07 2.85447e-09 -2.67306e-07)
(-1.51258e-07 7.21606e-09 -2.67415e-07)
(-1.56536e-07 1.96608e-08 -2.64263e-07)
(-1.89377e-07 -1.11692e-11 -2.7143e-07)
(-1.89378e-07 2.53751e-11 -2.71434e-07)
(-1.89379e-07 7.44481e-11 -2.71437e-07)
(-1.89161e-07 1.69031e-10 -2.71562e-07)
(-1.88301e-07 4.58132e-10 -2.72029e-07)
(-1.88631e-07 1.10454e-09 -2.71935e-07)
(-1.8864e-07 2.64393e-09 -2.7204e-07)
(-1.88284e-07 6.61044e-09 -2.72273e-07)
(-1.83909e-07 1.76563e-08 -2.71829e-07)
(-2.05083e-07 -8.49971e-12 -2.90435e-07)
(-2.05083e-07 2.81233e-11 -2.90439e-07)
(-2.05076e-07 8.12521e-11 -2.90449e-07)
(-2.05058e-07 1.97188e-10 -2.9047e-07)
(-2.05225e-07 4.47656e-10 -2.9047e-07)
(-2.05032e-07 1.06681e-09 -2.90602e-07)
(-2.04923e-07 2.54966e-09 -2.90796e-07)
(-2.05114e-07 6.43055e-09 -2.90839e-07)
(-2.11292e-07 1.84245e-08 -2.87225e-07)
(-2.63025e-07 -3.44755e-13 -3.0444e-07)
(-2.63024e-07 2.85692e-11 -3.04444e-07)
(-2.63022e-07 7.92131e-11 -3.0445e-07)
(-2.63023e-07 1.92007e-10 -3.04464e-07)
(-2.63025e-07 4.56858e-10 -3.04497e-07)
(-2.63011e-07 1.08806e-09 -3.04592e-07)
(-2.62976e-07 2.63239e-09 -3.04737e-07)
(-2.62851e-07 6.82525e-09 -3.04664e-07)
(-2.64388e-07 2.02675e-08 -2.99817e-07)
(-3.25893e-07 -1.18459e-11 -2.96633e-07)
(-3.25881e-07 2.95241e-11 -2.96656e-07)
(-3.25881e-07 9.0762e-11 -2.96662e-07)
(-3.25885e-07 2.20205e-10 -2.96673e-07)
(-3.25901e-07 5.18964e-10 -2.96694e-07)
(-3.25916e-07 1.19632e-09 -2.96761e-07)
(-3.25854e-07 2.86506e-09 -2.96915e-07)
(-3.25448e-07 7.35577e-09 -2.96758e-07)
(-3.21431e-07 2.12861e-08 -2.92676e-07)
(-3.70202e-07 1.67929e-11 -2.58662e-07)
(-3.70191e-07 3.99717e-11 -2.58673e-07)
(-3.70193e-07 9.52912e-11 -2.58677e-07)
(-3.70201e-07 2.22083e-10 -2.58687e-07)
(-3.70222e-07 5.09408e-10 -2.58708e-07)
(-3.70249e-07 1.17941e-09 -2.58766e-07)
(-3.70202e-07 2.72749e-09 -2.58918e-07)
(-3.6976e-07 6.78843e-09 -2.59036e-07)
(-3.65607e-07 1.94818e-08 -2.57316e-07)
(-4.02133e-07 1.65296e-11 -1.94211e-07)
(-4.02133e-07 4.29e-11 -1.94214e-07)
(-4.02137e-07 1.06664e-10 -1.94217e-07)
(-4.02149e-07 2.46051e-10 -1.94226e-07)
(-4.02173e-07 5.56397e-10 -1.94251e-07)
(-4.02212e-07 1.25774e-09 -1.94314e-07)
(-4.02233e-07 2.89149e-09 -1.94467e-07)
(-4.01899e-07 7.03898e-09 -1.94788e-07)
(-3.983e-07 1.93138e-08 -1.95298e-07)
(-4.1883e-07 6.05649e-12 -1.38193e-07)
(-4.18834e-07 5.03448e-11 -1.38195e-07)
(-4.18842e-07 1.27548e-10 -1.38196e-07)
(-4.18859e-07 2.91376e-10 -1.382e-07)
(-4.18896e-07 6.51496e-10 -1.38214e-07)
(-4.18967e-07 1.4542e-09 -1.38254e-07)
(-4.19053e-07 3.29386e-09 -1.38367e-07)
(-4.1885e-07 7.8456e-09 -1.38692e-07)
(-4.1577e-07 2.08642e-08 -1.40521e-07)
(-4.30653e-07 6.50227e-12 -1.11433e-07)
(-4.30656e-07 5.82864e-11 -1.11434e-07)
(-4.30664e-07 1.48847e-10 -1.11435e-07)
(-4.30682e-07 3.38432e-10 -1.11435e-07)
(-4.30721e-07 7.47569e-10 -1.11439e-07)
(-4.30797e-07 1.65402e-09 -1.11465e-07)
(-4.30909e-07 3.70896e-09 -1.11511e-07)
(-4.30839e-07 8.63837e-09 -1.11513e-07)
(-4.28906e-07 2.15764e-08 -1.10729e-07)
(-4.3559e-07 -2.55888e-12 -6.59198e-08)
(-4.35593e-07 5.52472e-11 -6.59211e-08)
(-4.35602e-07 1.44189e-10 -6.5923e-08)
(-4.35622e-07 3.23115e-10 -6.5924e-08)
(-4.35665e-07 7.10275e-10 -6.59287e-08)
(-4.35745e-07 1.55162e-09 -6.59508e-08)
(-4.35863e-07 3.43555e-09 -6.59833e-08)
(-4.35799e-07 8.0056e-09 -6.588e-08)
(-4.33465e-07 2.08808e-08 -6.43817e-08)
(-4.4023e-07 -1.86485e-11 -1.27895e-08)
(-4.40237e-07 5.92554e-11 -1.27902e-08)
(-4.40247e-07 1.59942e-10 -1.27889e-08)
(-4.40268e-07 3.58415e-10 -1.27857e-08)
(-4.40311e-07 7.81241e-10 -1.2781e-08)
(-4.40394e-07 1.70041e-09 -1.2777e-08)
(-4.40511e-07 3.76293e-09 -1.27865e-08)
(-4.40388e-07 8.76103e-09 -1.28692e-08)
(-4.37395e-07 2.22643e-08 -1.39066e-08)
(-4.50847e-08 3.46828e-12 -3.18704e-07)
(-4.50865e-08 2.05757e-11 -3.18693e-07)
(-4.51181e-08 6.41939e-11 -3.18665e-07)
(-4.51896e-08 2.0185e-10 -3.18586e-07)
(-4.52992e-08 4.64262e-10 -3.18495e-07)
(-4.53679e-08 1.12201e-09 -3.18455e-07)
(-4.55426e-08 2.95466e-09 -3.18326e-07)
(-4.60535e-08 7.81104e-09 -3.17857e-07)
(-4.68464e-08 2.11649e-08 -3.17739e-07)
(-5.5323e-08 5.49872e-11 -3.03761e-07)
(-5.53085e-08 2.37756e-11 -3.03781e-07)
(-5.52893e-08 7.57101e-11 -3.0384e-07)
(-5.53102e-08 2.62379e-10 -3.03805e-07)
(-5.53771e-08 5.89144e-10 -3.03521e-07)
(-5.54659e-08 1.41349e-09 -3.03472e-07)
(-5.56504e-08 3.77957e-09 -3.03281e-07)
(-5.62611e-08 9.1288e-09 -3.02824e-07)
(-5.90269e-08 2.22087e-08 -3.03192e-07)
(-6.5003e-08 -8.84861e-12 -2.90669e-07)
(-6.50158e-08 1.31152e-10 -2.90589e-07)
(-6.56076e-08 2.73946e-10 -2.90335e-07)
(-6.57871e-08 2.65486e-10 -2.90228e-07)
(-6.58543e-08 5.10123e-10 -2.9029e-07)
(-6.52664e-08 1.25012e-09 -2.90402e-07)
(-6.51129e-08 3.51944e-09 -2.90283e-07)
(-6.61549e-08 9.60117e-09 -2.89779e-07)
(-6.99335e-08 2.60786e-08 -2.905e-07)
(-8.62707e-08 1.01674e-11 -2.78337e-07)
(-8.62603e-08 8.30431e-11 -2.78325e-07)
(-8.61844e-08 1.61709e-10 -2.78254e-07)
(-8.61715e-08 2.56903e-10 -2.78189e-07)
(-8.62022e-08 6.10331e-10 -2.78169e-07)
(-8.63077e-08 1.60633e-09 -2.78179e-07)
(-8.63728e-08 4.28627e-09 -2.7809e-07)
(-8.64877e-08 1.12408e-08 -2.77799e-07)
(-8.78052e-08 3.0606e-08 -2.79141e-07)
(-1.03322e-07 3.92574e-11 -2.70855e-07)
(-1.03299e-07 4.07643e-11 -2.70861e-07)
(-1.03269e-07 1.05885e-10 -2.70881e-07)
(-1.03249e-07 2.77933e-10 -2.70895e-07)
(-1.03274e-07 7.04767e-10 -2.7086e-07)
(-1.03338e-07 1.77828e-09 -2.70769e-07)
(-1.03432e-07 4.55284e-09 -2.70567e-07)
(-1.03576e-07 1.19009e-08 -2.7003e-07)
(-1.04643e-07 3.23686e-08 -2.69478e-07)
(-1.13321e-07 1.10861e-11 -2.59773e-07)
(-1.13306e-07 4.969e-11 -2.5978e-07)
(-1.13278e-07 1.37875e-10 -2.59793e-07)
(-1.13259e-07 3.38355e-10 -2.59798e-07)
(-1.13252e-07 8.14363e-10 -2.59779e-07)
(-1.1323e-07 2.02435e-09 -2.5973e-07)
(-1.13143e-07 5.09967e-09 -2.59612e-07)
(-1.12939e-07 1.3172e-08 -2.59479e-07)
(-1.13212e-07 3.54686e-08 -2.61051e-07)
(-1.25906e-07 3.22552e-11 -2.51644e-07)
(-1.25903e-07 6.01794e-11 -2.51644e-07)
(-1.25901e-07 1.51226e-10 -2.5164e-07)
(-1.25921e-07 3.67926e-10 -2.51626e-07)
(-1.25974e-07 9.07012e-10 -2.51589e-07)
(-1.26066e-07 2.25174e-09 -2.51501e-07)
(-1.26173e-07 5.64704e-09 -2.51285e-07)
(-1.26061e-07 1.4411e-08 -2.50735e-07)
(-1.25979e-07 3.78449e-08 -2.50099e-07)
(-1.3539e-07 2.24404e-11 -2.52363e-07)
(-1.35388e-07 5.52806e-11 -2.52365e-07)
(-1.35386e-07 1.4737e-10 -2.52364e-07)
(-1.35386e-07 3.6747e-10 -2.52356e-07)
(-1.35392e-07 9.11735e-10 -2.52337e-07)
(-1.35395e-07 2.25126e-09 -2.52284e-07)
(-1.35325e-07 5.57611e-09 -2.52114e-07)
(-1.34784e-07 1.39833e-08 -2.51443e-07)
(-1.33125e-07 3.66601e-08 -2.50391e-07)
(-1.53191e-07 6.40128e-12 -2.59075e-07)
(-1.53187e-07 5.36975e-11 -2.59072e-07)
(-1.53175e-07 1.48734e-10 -2.59075e-07)
(-1.53138e-07 3.77708e-10 -2.59094e-07)
(-1.53077e-07 9.60918e-10 -2.59115e-07)
(-1.52962e-07 2.36811e-09 -2.59099e-07)
(-1.52684e-07 5.78211e-09 -2.58996e-07)
(-1.5187e-07 1.42266e-08 -2.58592e-07)
(-1.4812e-07 3.56876e-08 -2.58457e-07)
(-1.80826e-07 1.15844e-11 -2.67446e-07)
(-1.80832e-07 5.97731e-11 -2.67429e-07)
(-1.80823e-07 1.71265e-10 -2.67429e-07)
(-1.80775e-07 4.24439e-10 -2.67448e-07)
(-1.80743e-07 1.03636e-09 -2.67445e-07)
(-1.80671e-07 2.51121e-09 -2.67433e-07)
(-1.80509e-07 6.11345e-09 -2.67302e-07)
(-1.79779e-07 1.50644e-08 -2.66744e-07)
(-1.76438e-07 3.67348e-08 -2.66145e-07)
(-2.13638e-07 2.86236e-11 -2.86242e-07)
(-2.13634e-07 6.52114e-11 -2.8624e-07)
(-2.13618e-07 1.7346e-10 -2.8624e-07)
(-2.13583e-07 4.161e-10 -2.8624e-07)
(-2.13517e-07 9.86947e-10 -2.86245e-07)
(-2.1336e-07 2.37508e-09 -2.8624e-07)
(-2.1293e-07 5.7636e-09 -2.8615e-07)
(-2.12026e-07 1.41737e-08 -2.85286e-07)
(-2.11153e-07 3.57861e-08 -2.82149e-07)
(-2.69613e-07 -4.94127e-12 -2.99187e-07)
(-2.69607e-07 6.05863e-11 -2.99185e-07)
(-2.69597e-07 1.73688e-10 -2.99183e-07)
(-2.6958e-07 4.23588e-10 -2.99179e-07)
(-2.69541e-07 1.01514e-09 -2.99173e-07)
(-2.6943e-07 2.45136e-09 -2.99156e-07)
(-2.69066e-07 5.98743e-09 -2.98973e-07)
(-2.67715e-07 1.48012e-08 -2.97746e-07)
(-2.63376e-07 3.75965e-08 -2.93188e-07)
(-3.26029e-07 -6.28587e-12 -2.93004e-07)
(-3.26025e-07 6.52654e-11 -2.93006e-07)
(-3.2602e-07 1.87988e-10 -2.93003e-07)
(-3.2601e-07 4.54703e-10 -2.9299e-07)
(-3.25983e-07 1.07375e-09 -2.92964e-07)
(-3.25878e-07 2.54556e-09 -2.92916e-07)
(-3.25425e-07 6.12026e-09 -2.92694e-07)
(-3.23407e-07 1.49378e-08 -2.91393e-07)
(-3.15702e-07 3.78078e-08 -2.86361e-07)
(-3.67761e-07 3.00308e-12 -2.57149e-07)
(-3.67752e-07 7.78606e-11 -2.57144e-07)
(-3.67745e-07 2.04251e-10 -2.57134e-07)
(-3.67735e-07 4.80118e-10 -2.57119e-07)
(-3.67709e-07 1.11454e-09 -2.57088e-07)
(-3.67604e-07 2.59751e-09 -2.57035e-07)
(-3.67153e-07 6.10198e-09 -2.56881e-07)
(-3.65186e-07 1.4548e-08 -2.56198e-07)
(-3.57795e-07 3.58942e-08 -2.53742e-07)
(-3.95011e-07 -1.06168e-11 -2.03024e-07)
(-3.95006e-07 8.55516e-11 -2.03016e-07)
(-3.95001e-07 2.3182e-10 -2.03001e-07)
(-3.94993e-07 5.39033e-10 -2.02974e-07)
(-3.94968e-07 1.22897e-09 -2.02926e-07)
(-3.94864e-07 2.81204e-09 -2.02851e-07)
(-3.9445e-07 6.51339e-09 -2.02724e-07)
(-3.92848e-07 1.52825e-08 -2.02459e-07)
(-3.87868e-07 3.68831e-08 -2.01638e-07)
(-4.13198e-07 1.72939e-11 -1.4734e-07)
(-4.13191e-07 1.08585e-10 -1.4733e-07)
(-4.13186e-07 2.80247e-10 -1.47309e-07)
(-4.13179e-07 6.43725e-10 -1.47269e-07)
(-4.13156e-07 1.45197e-09 -1.47194e-07)
(-4.13073e-07 3.27671e-09 -1.47072e-07)
(-4.12731e-07 7.43315e-09 -1.46881e-07)
(-4.11436e-07 1.71107e-08 -1.46717e-07)
(-4.07733e-07 4.01788e-08 -1.47645e-07)
(-4.27202e-07 2.45019e-11 -1.10102e-07)
(-4.27199e-07 1.24673e-10 -1.101e-07)
(-4.27191e-07 3.15195e-10 -1.10094e-07)
(-4.27174e-07 7.16679e-10 -1.10082e-07)
(-4.2713e-07 1.59913e-09 -1.10064e-07)
(-4.27012e-07 3.57252e-09 -1.10037e-07)
(-4.26648e-07 8.03631e-09 -1.09945e-07)
(-4.2554e-07 1.82541e-08 -1.09549e-07)
(-4.2301e-07 4.20284e-08 -1.08197e-07)
(-4.34263e-07 2.09741e-11 -6.65016e-08)
(-4.34263e-07 1.24076e-10 -6.6502e-08)
(-4.34254e-07 3.14798e-10 -6.6498e-08)
(-4.3423e-07 7.09677e-10 -6.64893e-08)
(-4.34175e-07 1.56758e-09 -6.6474e-08)
(-4.34035e-07 3.4645e-09 -6.6448e-08)
(-4.33621e-07 7.72853e-09 -6.63571e-08)
(-4.32341e-07 1.75796e-08 -6.59193e-08)
(-4.29202e-07 4.13348e-08 -6.40227e-08)
(-4.36181e-07 2.82116e-11 -1.92283e-08)
(-4.3618e-07 1.3666e-10 -1.92249e-08)
(-4.36173e-07 3.44773e-10 -1.9212e-08)
(-4.36154e-07 7.73443e-10 -1.91847e-08)
(-4.36107e-07 1.69837e-09 -1.91299e-08)
(-4.35981e-07 3.73346e-09 -1.90297e-08)
(-4.35583e-07 8.28542e-09 -1.88707e-08)
(-4.34291e-07 1.87004e-08 -1.87054e-08)
(-4.31212e-07 4.33929e-08 -1.86867e-08)
(-5.54003e-08 3.29195e-07 -1.37891e-07)
(-5.42165e-08 3.26966e-07 -1.31418e-07)
(-5.308e-08 3.2173e-07 -1.23819e-07)
(-4.99305e-08 3.16191e-07 -1.13926e-07)
(-4.86844e-08 3.09722e-07 -1.03691e-07)
(-4.76494e-08 3.03372e-07 -9.2429e-08)
(-4.80435e-08 2.95822e-07 -8.12694e-08)
(-4.94312e-08 2.87524e-07 -7.11087e-08)
(-5.0553e-08 2.78149e-07 -6.26163e-08)
(-5.24945e-08 2.66832e-07 -5.21074e-08)
(-5.32568e-08 2.54266e-07 -4.29817e-08)
(-5.51983e-08 2.4085e-07 -3.50512e-08)
(-5.53447e-08 2.28506e-07 -2.74883e-08)
(-5.70757e-08 2.15788e-07 -2.19013e-08)
(-5.74476e-08 2.04407e-07 -1.75262e-08)
(-5.77142e-08 1.92677e-07 -1.38997e-08)
(-5.80705e-08 1.81358e-07 -1.06271e-08)
(-5.88844e-08 1.70724e-07 -7.83672e-09)
(-6.07506e-08 1.60809e-07 -5.29684e-09)
(-4.93937e-08 3.29256e-07 -1.25179e-07)
(-5.00521e-08 3.25136e-07 -1.19384e-07)
(-4.80033e-08 3.19933e-07 -1.1093e-07)
(-4.58319e-08 3.14479e-07 -1.01417e-07)
(-4.55005e-08 3.08011e-07 -9.14272e-08)
(-4.54085e-08 3.0172e-07 -8.1245e-08)
(-4.65306e-08 2.94506e-07 -7.19949e-08)
(-4.77007e-08 2.86617e-07 -6.4317e-08)
(-4.91208e-08 2.78279e-07 -5.6658e-08)
(-5.00957e-08 2.69149e-07 -4.87689e-08)
(-5.1315e-08 2.58086e-07 -4.13026e-08)
(-5.13691e-08 2.47737e-07 -3.27594e-08)
(-5.16151e-08 2.36136e-07 -2.70832e-08)
(-5.25265e-08 2.22975e-07 -2.1054e-08)
(-5.42402e-08 2.10452e-07 -1.63482e-08)
(-5.46339e-08 1.98893e-07 -1.28016e-08)
(-5.45175e-08 1.88165e-07 -9.97196e-09)
(-5.45183e-08 1.77609e-07 -7.31941e-09)
(-5.46528e-08 1.69272e-07 -5.50122e-09)
(-4.84331e-08 3.2998e-07 -1.24745e-07)
(-4.80637e-08 3.2684e-07 -1.18235e-07)
(-4.79266e-08 3.21157e-07 -1.11628e-07)
(-4.42568e-08 3.16432e-07 -1.01895e-07)
(-4.29339e-08 3.10109e-07 -9.18719e-08)
(-4.35685e-08 3.03487e-07 -8.1234e-08)
(-4.46134e-08 2.96171e-07 -7.1409e-08)
(-4.63147e-08 2.88154e-07 -6.26445e-08)
(-4.80324e-08 2.79606e-07 -5.46309e-08)
(-4.96657e-08 2.70712e-07 -4.63672e-08)
(-5.03577e-08 2.59225e-07 -3.80399e-08)
(-5.11412e-08 2.4666e-07 -3.01655e-08)
(-5.17924e-08 2.33497e-07 -2.33461e-08)
(-5.32915e-08 2.20707e-07 -1.79864e-08)
(-5.40605e-08 2.09061e-07 -1.38632e-08)
(-5.43475e-08 1.97885e-07 -1.06729e-08)
(-5.48263e-08 1.86405e-07 -7.80143e-09)
(-5.55497e-08 1.74922e-07 -5.42934e-09)